# LAMMPS data file written by OVITO Basic 3.7.8
864 atoms
2 atom types
0.0 21.48 xlo xhi
0.0 42.96 ylo yhi
0.0 60.32 zlo zhi

Masses

1 28.085  # Si
2 15.999  # O

Atoms  # full

1 1 1 0.0 0.0 0.0 0.0
2 1 1 0.0 0.0 3.58 3.58
3 1 1 0.0 3.58 0.0 3.58
4 1 1 0.0 3.58 3.58 0.0
5 1 1 0.0 5.37 1.79 5.37
6 1 1 0.0 1.79 1.79 1.79
7 1 1 0.0 1.79 5.37 5.37
8 1 1 0.0 5.37 5.37 1.79
9 1 2 0.0 0.895 0.895 0.895
10 1 2 0.0 0.895 4.475 4.475
11 1 2 0.0 4.475 0.895 4.475
12 1 2 0.0 4.475 4.475 0.895
13 1 2 0.0 6.265 2.685 4.475
14 1 2 0.0 6.265 6.265 0.895
15 1 2 0.0 2.685 6.265 4.475
16 1 2 0.0 2.685 4.475 6.265
17 1 2 0.0 2.685 0.895 2.685
18 1 2 0.0 6.265 4.475 2.685
19 1 2 0.0 4.475 6.265 2.685
20 1 2 0.0 4.475 2.685 6.265
21 1 2 0.0 0.895 6.265 6.265
22 1 2 0.0 6.265 0.895 6.265
23 1 2 0.0 2.685 2.685 0.895
24 1 2 0.0 0.895 2.685 2.685
25 1 1 0.0 7.16 0.0 0.0
26 1 1 0.0 7.16 3.58 3.58
27 1 1 0.0 10.74 0.0 3.58
28 1 1 0.0 10.74 3.58 0.0
29 1 1 0.0 12.53 1.79 5.37
30 1 1 0.0 8.95 1.79 1.79
31 1 1 0.0 8.95 5.37 5.37
32 1 1 0.0 12.53 5.37 1.79
33 1 2 0.0 8.055 0.895 0.895
34 1 2 0.0 8.055 4.475 4.475
35 1 2 0.0 11.635 0.895 4.475
36 1 2 0.0 11.635 4.475 0.895
37 1 2 0.0 13.425 2.685 4.475
38 1 2 0.0 13.425 6.265 0.895
39 1 2 0.0 9.845 6.265 4.475
40 1 2 0.0 9.845 4.475 6.265
41 1 2 0.0 9.845 0.895 2.685
42 1 2 0.0 13.425 4.475 2.685
43 1 2 0.0 11.635 6.265 2.685
44 1 2 0.0 11.635 2.685 6.265
45 1 2 0.0 8.055 6.265 6.265
46 1 2 0.0 13.425 0.895 6.265
47 1 2 0.0 9.845 2.685 0.895
48 1 2 0.0 8.055 2.685 2.685
49 1 1 0.0 14.32 0.0 0.0
50 1 1 0.0 14.32 3.58 3.58
51 1 1 0.0 17.9 0.0 3.58
52 1 1 0.0 17.9 3.58 0.0
53 1 1 0.0 19.69 1.79 5.37
54 1 1 0.0 16.11 1.79 1.79
55 1 1 0.0 16.11 5.37 5.37
56 1 1 0.0 19.69 5.37 1.79
57 1 2 0.0 15.215 0.895 0.895
58 1 2 0.0 15.215 4.475 4.475
59 1 2 0.0 18.795 0.895 4.475
60 1 2 0.0 18.795 4.475 0.895
61 1 2 0.0 20.585 2.685 4.475
62 1 2 0.0 20.585 6.265 0.895
63 1 2 0.0 17.005 6.265 4.475
64 1 2 0.0 17.005 4.475 6.265
65 1 2 0.0 17.005 0.895 2.685
66 1 2 0.0 20.585 4.475 2.685
67 1 2 0.0 18.795 6.265 2.685
68 1 2 0.0 18.795 2.685 6.265
69 1 2 0.0 15.215 6.265 6.265
70 1 2 0.0 20.585 0.895 6.265
71 1 2 0.0 17.005 2.685 0.895
72 1 2 0.0 15.215 2.685 2.685
73 1 1 0.0 0.0 7.16 0.0
74 1 1 0.0 0.0 10.74 3.58
75 1 1 0.0 3.58 7.16 3.58
76 1 1 0.0 3.58 10.74 0.0
77 1 1 0.0 5.37 8.95 5.37
78 1 1 0.0 1.79 8.95 1.79
79 1 1 0.0 1.79 12.53 5.37
80 1 1 0.0 5.37 12.53 1.79
81 1 2 0.0 0.895 8.055 0.895
82 1 2 0.0 0.895 11.635 4.475
83 1 2 0.0 4.475 8.055 4.475
84 1 2 0.0 4.475 11.635 0.895
85 1 2 0.0 6.265 9.845 4.475
86 1 2 0.0 6.265 13.425 0.895
87 1 2 0.0 2.685 13.425 4.475
88 1 2 0.0 2.685 11.635 6.265
89 1 2 0.0 2.685 8.055 2.685
90 1 2 0.0 6.265 11.635 2.685
91 1 2 0.0 4.475 13.425 2.685
92 1 2 0.0 4.475 9.845 6.265
93 1 2 0.0 0.895 13.425 6.265
94 1 2 0.0 6.265 8.055 6.265
95 1 2 0.0 2.685 9.845 0.895
96 1 2 0.0 0.895 9.845 2.685
97 1 1 0.0 7.16 7.16 0.0
98 1 1 0.0 7.16 10.74 3.58
99 1 1 0.0 10.74 7.16 3.58
100 1 1 0.0 10.74 10.74 0.0
101 1 1 0.0 12.53 8.95 5.37
102 1 1 0.0 8.95 8.95 1.79
103 1 1 0.0 8.95 12.53 5.37
104 1 1 0.0 12.53 12.53 1.79
105 1 2 0.0 8.055 8.055 0.895
106 1 2 0.0 8.055 11.635 4.475
107 1 2 0.0 11.635 8.055 4.475
108 1 2 0.0 11.635 11.635 0.895
109 1 2 0.0 13.425 9.845 4.475
110 1 2 0.0 13.425 13.425 0.895
111 1 2 0.0 9.845 13.425 4.475
112 1 2 0.0 9.845 11.635 6.265
113 1 2 0.0 9.845 8.055 2.685
114 1 2 0.0 13.425 11.635 2.685
115 1 2 0.0 11.635 13.425 2.685
116 1 2 0.0 11.635 9.845 6.265
117 1 2 0.0 8.055 13.425 6.265
118 1 2 0.0 13.425 8.055 6.265
119 1 2 0.0 9.845 9.845 0.895
120 1 2 0.0 8.055 9.845 2.685
121 1 1 0.0 14.32 7.16 0.0
122 1 1 0.0 14.32 10.74 3.58
123 1 1 0.0 17.9 7.16 3.58
124 1 1 0.0 17.9 10.74 0.0
125 1 1 0.0 19.69 8.95 5.37
126 1 1 0.0 16.11 8.95 1.79
127 1 1 0.0 16.11 12.53 5.37
128 1 1 0.0 19.69 12.53 1.79
129 1 2 0.0 15.215 8.055 0.895
130 1 2 0.0 15.215 11.635 4.475
131 1 2 0.0 18.795 8.055 4.475
132 1 2 0.0 18.795 11.635 0.895
133 1 2 0.0 20.585 9.845 4.475
134 1 2 0.0 20.585 13.425 0.895
135 1 2 0.0 17.005 13.425 4.475
136 1 2 0.0 17.005 11.635 6.265
137 1 2 0.0 17.005 8.055 2.685
138 1 2 0.0 20.585 11.635 2.685
139 1 2 0.0 18.795 13.425 2.685
140 1 2 0.0 18.795 9.845 6.265
141 1 2 0.0 15.215 13.425 6.265
142 1 2 0.0 20.585 8.055 6.265
143 1 2 0.0 17.005 9.845 0.895
144 1 2 0.0 15.215 9.845 2.685
145 1 1 0.0 0.0 14.32 0.0
146 1 1 0.0 0.0 17.9 3.58
147 1 1 0.0 3.58 14.32 3.58
148 1 1 0.0 3.58 17.9 0.0
149 1 1 0.0 5.37 16.11 5.37
150 1 1 0.0 1.79 16.11 1.79
151 1 1 0.0 1.79 19.69 5.37
152 1 1 0.0 5.37 19.69 1.79
153 1 2 0.0 0.895 15.215 0.895
154 1 2 0.0 0.895 18.795 4.475
155 1 2 0.0 4.475 15.215 4.475
156 1 2 0.0 4.475 18.795 0.895
157 1 2 0.0 6.265 17.005 4.475
158 1 2 0.0 6.265 20.585 0.895
159 1 2 0.0 2.685 20.585 4.475
160 1 2 0.0 2.685 18.795 6.265
161 1 2 0.0 2.685 15.215 2.685
162 1 2 0.0 6.265 18.795 2.685
163 1 2 0.0 4.475 20.585 2.685
164 1 2 0.0 4.475 17.005 6.265
165 1 2 0.0 0.895 20.585 6.265
166 1 2 0.0 6.265 15.215 6.265
167 1 2 0.0 2.685 17.005 0.895
168 1 2 0.0 0.895 17.005 2.685
169 1 1 0.0 7.16 14.32 0.0
170 1 1 0.0 7.16 17.9 3.58
171 1 1 0.0 10.74 14.32 3.58
172 1 1 0.0 10.74 17.9 0.0
173 1 1 0.0 12.53 16.11 5.37
174 1 1 0.0 8.95 16.11 1.79
175 1 1 0.0 8.95 19.69 5.37
176 1 1 0.0 12.53 19.69 1.79
177 1 2 0.0 8.055 15.215 0.895
178 1 2 0.0 8.055 18.795 4.475
179 1 2 0.0 11.635 15.215 4.475
180 1 2 0.0 11.635 18.795 0.895
181 1 2 0.0 13.425 17.005 4.475
182 1 2 0.0 13.425 20.585 0.895
183 1 2 0.0 9.845 20.585 4.475
184 1 2 0.0 9.845 18.795 6.265
185 1 2 0.0 9.845 15.215 2.685
186 1 2 0.0 13.425 18.795 2.685
187 1 2 0.0 11.635 20.585 2.685
188 1 2 0.0 11.635 17.005 6.265
189 1 2 0.0 8.055 20.585 6.265
190 1 2 0.0 13.425 15.215 6.265
191 1 2 0.0 9.845 17.005 0.895
192 1 2 0.0 8.055 17.005 2.685
193 1 1 0.0 14.32 14.32 0.0
194 1 1 0.0 14.32 17.9 3.58
195 1 1 0.0 17.9 14.32 3.58
196 1 1 0.0 17.9 17.9 0.0
197 1 1 0.0 19.69 16.11 5.37
198 1 1 0.0 16.11 16.11 1.79
199 1 1 0.0 16.11 19.69 5.37
200 1 1 0.0 19.69 19.69 1.79
201 1 2 0.0 15.215 15.215 0.895
202 1 2 0.0 15.215 18.795 4.475
203 1 2 0.0 18.795 15.215 4.475
204 1 2 0.0 18.795 18.795 0.895
205 1 2 0.0 20.585 17.005 4.475
206 1 2 0.0 20.585 20.585 0.895
207 1 2 0.0 17.005 20.585 4.475
208 1 2 0.0 17.005 18.795 6.265
209 1 2 0.0 17.005 15.215 2.685
210 1 2 0.0 20.585 18.795 2.685
211 1 2 0.0 18.795 20.585 2.685
212 1 2 0.0 18.795 17.005 6.265
213 1 2 0.0 15.215 20.585 6.265
214 1 2 0.0 20.585 15.215 6.265
215 1 2 0.0 17.005 17.005 0.895
216 1 2 0.0 15.215 17.005 2.685
217 1 1 0.0 0.0 21.48 0.0
218 1 1 0.0 0.0 25.06 3.58
219 1 1 0.0 3.58 21.48 3.58
220 1 1 0.0 3.58 25.06 0.0
221 1 1 0.0 5.37 23.27 5.37
222 1 1 0.0 1.79 23.27 1.79
223 1 1 0.0 1.79 26.85 5.37
224 1 1 0.0 5.37 26.85 1.79
225 1 2 0.0 0.895 22.375 0.895
226 1 2 0.0 0.895 25.955 4.475
227 1 2 0.0 4.475 22.375 4.475
228 1 2 0.0 4.475 25.955 0.895
229 1 2 0.0 6.265 24.165 4.475
230 1 2 0.0 6.265 27.745 0.895
231 1 2 0.0 2.685 27.745 4.475
232 1 2 0.0 2.685 25.955 6.265
233 1 2 0.0 2.685 22.375 2.685
234 1 2 0.0 6.265 25.955 2.685
235 1 2 0.0 4.475 27.745 2.685
236 1 2 0.0 4.475 24.165 6.265
237 1 2 0.0 0.895 27.745 6.265
238 1 2 0.0 6.265 22.375 6.265
239 1 2 0.0 2.685 24.165 0.895
240 1 2 0.0 0.895 24.165 2.685
241 1 1 0.0 7.16 21.48 0.0
242 1 1 0.0 7.16 25.06 3.58
243 1 1 0.0 10.74 21.48 3.58
244 1 1 0.0 10.74 25.06 0.0
245 1 1 0.0 12.53 23.27 5.37
246 1 1 0.0 8.95 23.27 1.79
247 1 1 0.0 8.95 26.85 5.37
248 1 1 0.0 12.53 26.85 1.79
249 1 2 0.0 8.055 22.375 0.895
250 1 2 0.0 8.055 25.955 4.475
251 1 2 0.0 11.635 22.375 4.475
252 1 2 0.0 11.635 25.955 0.895
253 1 2 0.0 13.425 24.165 4.475
254 1 2 0.0 13.425 27.745 0.895
255 1 2 0.0 9.845 27.745 4.475
256 1 2 0.0 9.845 25.955 6.265
257 1 2 0.0 9.845 22.375 2.685
258 1 2 0.0 13.425 25.955 2.685
259 1 2 0.0 11.635 27.745 2.685
260 1 2 0.0 11.635 24.165 6.265
261 1 2 0.0 8.055 27.745 6.265
262 1 2 0.0 13.425 22.375 6.265
263 1 2 0.0 9.845 24.165 0.895
264 1 2 0.0 8.055 24.165 2.685
265 1 1 0.0 14.32 21.48 0.0
266 1 1 0.0 14.32 25.06 3.58
267 1 1 0.0 17.9 21.48 3.58
268 1 1 0.0 17.9 25.06 0.0
269 1 1 0.0 19.69 23.27 5.37
270 1 1 0.0 16.11 23.27 1.79
271 1 1 0.0 16.11 26.85 5.37
272 1 1 0.0 19.69 26.85 1.79
273 1 2 0.0 15.215 22.375 0.895
274 1 2 0.0 15.215 25.955 4.475
275 1 2 0.0 18.795 22.375 4.475
276 1 2 0.0 18.795 25.955 0.895
277 1 2 0.0 20.585 24.165 4.475
278 1 2 0.0 20.585 27.745 0.895
279 1 2 0.0 17.005 27.745 4.475
280 1 2 0.0 17.005 25.955 6.265
281 1 2 0.0 17.005 22.375 2.685
282 1 2 0.0 20.585 25.955 2.685
283 1 2 0.0 18.795 27.745 2.685
284 1 2 0.0 18.795 24.165 6.265
285 1 2 0.0 15.215 27.745 6.265
286 1 2 0.0 20.585 22.375 6.265
287 1 2 0.0 17.005 24.165 0.895
288 1 2 0.0 15.215 24.165 2.685
289 1 1 0.0 0.0 28.64 0.0
290 1 1 0.0 0.0 32.22 3.58
291 1 1 0.0 3.58 28.64 3.58
292 1 1 0.0 3.58 32.22 0.0
293 1 1 0.0 5.37 30.43 5.37
294 1 1 0.0 1.79 30.43 1.79
295 1 1 0.0 1.79 34.01 5.37
296 1 1 0.0 5.37 34.01 1.79
297 1 2 0.0 0.895 29.535 0.895
298 1 2 0.0 0.895 33.115 4.475
299 1 2 0.0 4.475 29.535 4.475
300 1 2 0.0 4.475 33.115 0.895
301 1 2 0.0 6.265 31.325 4.475
302 1 2 0.0 6.265 34.905 0.895
303 1 2 0.0 2.685 34.905 4.475
304 1 2 0.0 2.685 33.115 6.265
305 1 2 0.0 2.685 29.535 2.685
306 1 2 0.0 6.265 33.115 2.685
307 1 2 0.0 4.475 34.905 2.685
308 1 2 0.0 4.475 31.325 6.265
309 1 2 0.0 0.895 34.905 6.265
310 1 2 0.0 6.265 29.535 6.265
311 1 2 0.0 2.685 31.325 0.895
312 1 2 0.0 0.895 31.325 2.685
313 1 1 0.0 7.16 28.64 0.0
314 1 1 0.0 7.16 32.22 3.58
315 1 1 0.0 10.74 28.64 3.58
316 1 1 0.0 10.74 32.22 0.0
317 1 1 0.0 12.53 30.43 5.37
318 1 1 0.0 8.95 30.43 1.79
319 1 1 0.0 8.95 34.01 5.37
320 1 1 0.0 12.53 34.01 1.79
321 1 2 0.0 8.055 29.535 0.895
322 1 2 0.0 8.055 33.115 4.475
323 1 2 0.0 11.635 29.535 4.475
324 1 2 0.0 11.635 33.115 0.895
325 1 2 0.0 13.425 31.325 4.475
326 1 2 0.0 13.425 34.905 0.895
327 1 2 0.0 9.845 34.905 4.475
328 1 2 0.0 9.845 33.115 6.265
329 1 2 0.0 9.845 29.535 2.685
330 1 2 0.0 13.425 33.115 2.685
331 1 2 0.0 11.635 34.905 2.685
332 1 2 0.0 11.635 31.325 6.265
333 1 2 0.0 8.055 34.905 6.265
334 1 2 0.0 13.425 29.535 6.265
335 1 2 0.0 9.845 31.325 0.895
336 1 2 0.0 8.055 31.325 2.685
337 1 1 0.0 14.32 28.64 0.0
338 1 1 0.0 14.32 32.22 3.58
339 1 1 0.0 17.9 28.64 3.58
340 1 1 0.0 17.9 32.22 0.0
341 1 1 0.0 19.69 30.43 5.37
342 1 1 0.0 16.11 30.43 1.79
343 1 1 0.0 16.11 34.01 5.37
344 1 1 0.0 19.69 34.01 1.79
345 1 2 0.0 15.215 29.535 0.895
346 1 2 0.0 15.215 33.115 4.475
347 1 2 0.0 18.795 29.535 4.475
348 1 2 0.0 18.795 33.115 0.895
349 1 2 0.0 20.585 31.325 4.475
350 1 2 0.0 20.585 34.905 0.895
351 1 2 0.0 17.005 34.905 4.475
352 1 2 0.0 17.005 33.115 6.265
353 1 2 0.0 17.005 29.535 2.685
354 1 2 0.0 20.585 33.115 2.685
355 1 2 0.0 18.795 34.905 2.685
356 1 2 0.0 18.795 31.325 6.265
357 1 2 0.0 15.215 34.905 6.265
358 1 2 0.0 20.585 29.535 6.265
359 1 2 0.0 17.005 31.325 0.895
360 1 2 0.0 15.215 31.325 2.685
361 1 1 0.0 0.0 35.8 0.0
362 1 1 0.0 0.0 39.38 3.58
363 1 1 0.0 3.58 35.8 3.58
364 1 1 0.0 3.58 39.38 0.0
365 1 1 0.0 5.37 37.59 5.37
366 1 1 0.0 1.79 37.59 1.79
367 1 1 0.0 1.79 41.17 5.37
368 1 1 0.0 5.37 41.17 1.79
369 1 2 0.0 0.895 36.695 0.895
370 1 2 0.0 0.895 40.275 4.475
371 1 2 0.0 4.475 36.695 4.475
372 1 2 0.0 4.475 40.275 0.895
373 1 2 0.0 6.265 38.485 4.475
374 1 2 0.0 6.265 42.065 0.895
375 1 2 0.0 2.685 42.065 4.475
376 1 2 0.0 2.685 40.275 6.265
377 1 2 0.0 2.685 36.695 2.685
378 1 2 0.0 6.265 40.275 2.685
379 1 2 0.0 4.475 42.065 2.685
380 1 2 0.0 4.475 38.485 6.265
381 1 2 0.0 0.895 42.065 6.265
382 1 2 0.0 6.265 36.695 6.265
383 1 2 0.0 2.685 38.485 0.895
384 1 2 0.0 0.895 38.485 2.685
385 1 1 0.0 7.16 35.8 0.0
386 1 1 0.0 7.16 39.38 3.58
387 1 1 0.0 10.74 35.8 3.58
388 1 1 0.0 10.74 39.38 0.0
389 1 1 0.0 12.53 37.59 5.37
390 1 1 0.0 8.95 37.59 1.79
391 1 1 0.0 8.95 41.17 5.37
392 1 1 0.0 12.53 41.17 1.79
393 1 2 0.0 8.055 36.695 0.895
394 1 2 0.0 8.055 40.275 4.475
395 1 2 0.0 11.635 36.695 4.475
396 1 2 0.0 11.635 40.275 0.895
397 1 2 0.0 13.425 38.485 4.475
398 1 2 0.0 13.425 42.065 0.895
399 1 2 0.0 9.845 42.065 4.475
400 1 2 0.0 9.845 40.275 6.265
401 1 2 0.0 9.845 36.695 2.685
402 1 2 0.0 13.425 40.275 2.685
403 1 2 0.0 11.635 42.065 2.685
404 1 2 0.0 11.635 38.485 6.265
405 1 2 0.0 8.055 42.065 6.265
406 1 2 0.0 13.425 36.695 6.265
407 1 2 0.0 9.845 38.485 0.895
408 1 2 0.0 8.055 38.485 2.685
409 1 1 0.0 14.32 35.8 0.0
410 1 1 0.0 14.32 39.38 3.58
411 1 1 0.0 17.9 35.8 3.58
412 1 1 0.0 17.9 39.38 0.0
413 1 1 0.0 19.69 37.59 5.37
414 1 1 0.0 16.11 37.59 1.79
415 1 1 0.0 16.11 41.17 5.37
416 1 1 0.0 19.69 41.17 1.79
417 1 2 0.0 15.215 36.695 0.895
418 1 2 0.0 15.215 40.275 4.475
419 1 2 0.0 18.795 36.695 4.475
420 1 2 0.0 18.795 40.275 0.895
421 1 2 0.0 20.585 38.485 4.475
422 1 2 0.0 20.585 42.065 0.895
423 1 2 0.0 17.005 42.065 4.475
424 1 2 0.0 17.005 40.275 6.265
425 1 2 0.0 17.005 36.695 2.685
426 1 2 0.0 20.585 40.275 2.685
427 1 2 0.0 18.795 42.065 2.685
428 1 2 0.0 18.795 38.485 6.265
429 1 2 0.0 15.215 42.065 6.265
430 1 2 0.0 20.585 36.695 6.265
431 1 2 0.0 17.005 38.485 0.895
432 1 2 0.0 15.215 38.485 2.685
433 1 1 0.0 0.0 0.0 7.16
434 1 1 0.0 0.0 3.58 10.74
435 1 1 0.0 3.58 0.0 10.74
436 1 1 0.0 3.58 3.58 7.16
437 1 1 0.0 5.37 1.79 12.53
438 1 1 0.0 1.79 1.79 8.95
439 1 1 0.0 1.79 5.37 12.53
440 1 1 0.0 5.37 5.37 8.95
441 1 2 0.0 0.895 0.895 8.055
442 1 2 0.0 0.895 4.475 11.635
443 1 2 0.0 4.475 0.895 11.635
444 1 2 0.0 4.475 4.475 8.055
445 1 2 0.0 6.265 2.685 11.635
446 1 2 0.0 6.265 6.265 8.055
447 1 2 0.0 2.685 6.265 11.635
448 1 2 0.0 2.685 4.475 13.425
449 1 2 0.0 2.685 0.895 9.845
450 1 2 0.0 6.265 4.475 9.845
451 1 2 0.0 4.475 6.265 9.845
452 1 2 0.0 4.475 2.685 13.425
453 1 2 0.0 0.895 6.265 13.425
454 1 2 0.0 6.265 0.895 13.425
455 1 2 0.0 2.685 2.685 8.055
456 1 2 0.0 0.895 2.685 9.845
457 1 1 0.0 7.16 0.0 7.16
458 1 1 0.0 7.16 3.58 10.74
459 1 1 0.0 10.74 0.0 10.74
460 1 1 0.0 10.74 3.58 7.16
461 1 1 0.0 12.53 1.79 12.53
462 1 1 0.0 8.95 1.79 8.95
463 1 1 0.0 8.95 5.37 12.53
464 1 1 0.0 12.53 5.37 8.95
465 1 2 0.0 8.055 0.895 8.055
466 1 2 0.0 8.055 4.475 11.635
467 1 2 0.0 11.635 0.895 11.635
468 1 2 0.0 11.635 4.475 8.055
469 1 2 0.0 13.425 2.685 11.635
470 1 2 0.0 13.425 6.265 8.055
471 1 2 0.0 9.845 6.265 11.635
472 1 2 0.0 9.845 4.475 13.425
473 1 2 0.0 9.845 0.895 9.845
474 1 2 0.0 13.425 4.475 9.845
475 1 2 0.0 11.635 6.265 9.845
476 1 2 0.0 11.635 2.685 13.425
477 1 2 0.0 8.055 6.265 13.425
478 1 2 0.0 13.425 0.895 13.425
479 1 2 0.0 9.845 2.685 8.055
480 1 2 0.0 8.055 2.685 9.845
481 1 1 0.0 14.32 0.0 7.16
482 1 1 0.0 14.32 3.58 10.74
483 1 1 0.0 17.9 0.0 10.74
484 1 1 0.0 17.9 3.58 7.16
485 1 1 0.0 19.69 1.79 12.53
486 1 1 0.0 16.11 1.79 8.95
487 1 1 0.0 16.11 5.37 12.53
488 1 1 0.0 19.69 5.37 8.95
489 1 2 0.0 15.215 0.895 8.055
490 1 2 0.0 15.215 4.475 11.635
491 1 2 0.0 18.795 0.895 11.635
492 1 2 0.0 18.795 4.475 8.055
493 1 2 0.0 20.585 2.685 11.635
494 1 2 0.0 20.585 6.265 8.055
495 1 2 0.0 17.005 6.265 11.635
496 1 2 0.0 17.005 4.475 13.425
497 1 2 0.0 17.005 0.895 9.845
498 1 2 0.0 20.585 4.475 9.845
499 1 2 0.0 18.795 6.265 9.845
500 1 2 0.0 18.795 2.685 13.425
501 1 2 0.0 15.215 6.265 13.425
502 1 2 0.0 20.585 0.895 13.425
503 1 2 0.0 17.005 2.685 8.055
504 1 2 0.0 15.215 2.685 9.845
505 1 1 0.0 0.0 7.16 7.16
506 1 1 0.0 0.0 10.74 10.74
507 1 1 0.0 3.58 7.16 10.74
508 1 1 0.0 3.58 10.74 7.16
509 1 1 0.0 5.37 8.95 12.53
510 1 1 0.0 1.79 8.95 8.95
511 1 1 0.0 1.79 12.53 12.53
512 1 1 0.0 5.37 12.53 8.95
513 1 2 0.0 0.895 8.055 8.055
514 1 2 0.0 0.895 11.635 11.635
515 1 2 0.0 4.475 8.055 11.635
516 1 2 0.0 4.475 11.635 8.055
517 1 2 0.0 6.265 9.845 11.635
518 1 2 0.0 6.265 13.425 8.055
519 1 2 0.0 2.685 13.425 11.635
520 1 2 0.0 2.685 11.635 13.425
521 1 2 0.0 2.685 8.055 9.845
522 1 2 0.0 6.265 11.635 9.845
523 1 2 0.0 4.475 13.425 9.845
524 1 2 0.0 4.475 9.845 13.425
525 1 2 0.0 0.895 13.425 13.425
526 1 2 0.0 6.265 8.055 13.425
527 1 2 0.0 2.685 9.845 8.055
528 1 2 0.0 0.895 9.845 9.845
529 1 1 0.0 7.16 7.16 7.16
530 1 1 0.0 7.16 10.74 10.74
531 1 1 0.0 10.74 7.16 10.74
532 1 1 0.0 10.74 10.74 7.16
533 1 1 0.0 12.53 8.95 12.53
534 1 1 0.0 8.95 8.95 8.95
535 1 1 0.0 8.95 12.53 12.53
536 1 1 0.0 12.53 12.53 8.95
537 1 2 0.0 8.055 8.055 8.055
538 1 2 0.0 8.055 11.635 11.635
539 1 2 0.0 11.635 8.055 11.635
540 1 2 0.0 11.635 11.635 8.055
541 1 2 0.0 13.425 9.845 11.635
542 1 2 0.0 13.425 13.425 8.055
543 1 2 0.0 9.845 13.425 11.635
544 1 2 0.0 9.845 11.635 13.425
545 1 2 0.0 9.845 8.055 9.845
546 1 2 0.0 13.425 11.635 9.845
547 1 2 0.0 11.635 13.425 9.845
548 1 2 0.0 11.635 9.845 13.425
549 1 2 0.0 8.055 13.425 13.425
550 1 2 0.0 13.425 8.055 13.425
551 1 2 0.0 9.845 9.845 8.055
552 1 2 0.0 8.055 9.845 9.845
553 1 1 0.0 14.32 7.16 7.16
554 1 1 0.0 14.32 10.74 10.74
555 1 1 0.0 17.9 7.16 10.74
556 1 1 0.0 17.9 10.74 7.16
557 1 1 0.0 19.69 8.95 12.53
558 1 1 0.0 16.11 8.95 8.95
559 1 1 0.0 16.11 12.53 12.53
560 1 1 0.0 19.69 12.53 8.95
561 1 2 0.0 15.215 8.055 8.055
562 1 2 0.0 15.215 11.635 11.635
563 1 2 0.0 18.795 8.055 11.635
564 1 2 0.0 18.795 11.635 8.055
565 1 2 0.0 20.585 9.845 11.635
566 1 2 0.0 20.585 13.425 8.055
567 1 2 0.0 17.005 13.425 11.635
568 1 2 0.0 17.005 11.635 13.425
569 1 2 0.0 17.005 8.055 9.845
570 1 2 0.0 20.585 11.635 9.845
571 1 2 0.0 18.795 13.425 9.845
572 1 2 0.0 18.795 9.845 13.425
573 1 2 0.0 15.215 13.425 13.425
574 1 2 0.0 20.585 8.055 13.425
575 1 2 0.0 17.005 9.845 8.055
576 1 2 0.0 15.215 9.845 9.845
577 1 1 0.0 0.0 14.32 7.16
578 1 1 0.0 0.0 17.9 10.74
579 1 1 0.0 3.58 14.32 10.74
580 1 1 0.0 3.58 17.9 7.16
581 1 1 0.0 5.37 16.11 12.53
582 1 1 0.0 1.79 16.11 8.95
583 1 1 0.0 1.79 19.69 12.53
584 1 1 0.0 5.37 19.69 8.95
585 1 2 0.0 0.895 15.215 8.055
586 1 2 0.0 0.895 18.795 11.635
587 1 2 0.0 4.475 15.215 11.635
588 1 2 0.0 4.475 18.795 8.055
589 1 2 0.0 6.265 17.005 11.635
590 1 2 0.0 6.265 20.585 8.055
591 1 2 0.0 2.685 20.585 11.635
592 1 2 0.0 2.685 18.795 13.425
593 1 2 0.0 2.685 15.215 9.845
594 1 2 0.0 6.265 18.795 9.845
595 1 2 0.0 4.475 20.585 9.845
596 1 2 0.0 4.475 17.005 13.425
597 1 2 0.0 0.895 20.585 13.425
598 1 2 0.0 6.265 15.215 13.425
599 1 2 0.0 2.685 17.005 8.055
600 1 2 0.0 0.895 17.005 9.845
601 1 1 0.0 7.16 14.32 7.16
602 1 1 0.0 7.16 17.9 10.74
603 1 1 0.0 10.74 14.32 10.74
604 1 1 0.0 10.74 17.9 7.16
605 1 1 0.0 12.53 16.11 12.53
606 1 1 0.0 8.95 16.11 8.95
607 1 1 0.0 8.95 19.69 12.53
608 1 1 0.0 12.53 19.69 8.95
609 1 2 0.0 8.055 15.215 8.055
610 1 2 0.0 8.055 18.795 11.635
611 1 2 0.0 11.635 15.215 11.635
612 1 2 0.0 11.635 18.795 8.055
613 1 2 0.0 13.425 17.005 11.635
614 1 2 0.0 13.425 20.585 8.055
615 1 2 0.0 9.845 20.585 11.635
616 1 2 0.0 9.845 18.795 13.425
617 1 2 0.0 9.845 15.215 9.845
618 1 2 0.0 13.425 18.795 9.845
619 1 2 0.0 11.635 20.585 9.845
620 1 2 0.0 11.635 17.005 13.425
621 1 2 0.0 8.055 20.585 13.425
622 1 2 0.0 13.425 15.215 13.425
623 1 2 0.0 9.845 17.005 8.055
624 1 2 0.0 8.055 17.005 9.845
625 1 1 0.0 14.32 14.32 7.16
626 1 1 0.0 14.32 17.9 10.74
627 1 1 0.0 17.9 14.32 10.74
628 1 1 0.0 17.9 17.9 7.16
629 1 1 0.0 19.69 16.11 12.53
630 1 1 0.0 16.11 16.11 8.95
631 1 1 0.0 16.11 19.69 12.53
632 1 1 0.0 19.69 19.69 8.95
633 1 2 0.0 15.215 15.215 8.055
634 1 2 0.0 15.215 18.795 11.635
635 1 2 0.0 18.795 15.215 11.635
636 1 2 0.0 18.795 18.795 8.055
637 1 2 0.0 20.585 17.005 11.635
638 1 2 0.0 20.585 20.585 8.055
639 1 2 0.0 17.005 20.585 11.635
640 1 2 0.0 17.005 18.795 13.425
641 1 2 0.0 17.005 15.215 9.845
642 1 2 0.0 20.585 18.795 9.845
643 1 2 0.0 18.795 20.585 9.845
644 1 2 0.0 18.795 17.005 13.425
645 1 2 0.0 15.215 20.585 13.425
646 1 2 0.0 20.585 15.215 13.425
647 1 2 0.0 17.005 17.005 8.055
648 1 2 0.0 15.215 17.005 9.845
649 1 1 0.0 0.0 21.48 7.16
650 1 1 0.0 0.0 25.06 10.74
651 1 1 0.0 3.58 21.48 10.74
652 1 1 0.0 3.58 25.06 7.16
653 1 1 0.0 5.37 23.27 12.53
654 1 1 0.0 1.79 23.27 8.95
655 1 1 0.0 1.79 26.85 12.53
656 1 1 0.0 5.37 26.85 8.95
657 1 2 0.0 0.895 22.375 8.055
658 1 2 0.0 0.895 25.955 11.635
659 1 2 0.0 4.475 22.375 11.635
660 1 2 0.0 4.475 25.955 8.055
661 1 2 0.0 6.265 24.165 11.635
662 1 2 0.0 6.265 27.745 8.055
663 1 2 0.0 2.685 27.745 11.635
664 1 2 0.0 2.685 25.955 13.425
665 1 2 0.0 2.685 22.375 9.845
666 1 2 0.0 6.265 25.955 9.845
667 1 2 0.0 4.475 27.745 9.845
668 1 2 0.0 4.475 24.165 13.425
669 1 2 0.0 0.895 27.745 13.425
670 1 2 0.0 6.265 22.375 13.425
671 1 2 0.0 2.685 24.165 8.055
672 1 2 0.0 0.895 24.165 9.845
673 1 1 0.0 7.16 21.48 7.16
674 1 1 0.0 7.16 25.06 10.74
675 1 1 0.0 10.74 21.48 10.74
676 1 1 0.0 10.74 25.06 7.16
677 1 1 0.0 12.53 23.27 12.53
678 1 1 0.0 8.95 23.27 8.95
679 1 1 0.0 8.95 26.85 12.53
680 1 1 0.0 12.53 26.85 8.95
681 1 2 0.0 8.055 22.375 8.055
682 1 2 0.0 8.055 25.955 11.635
683 1 2 0.0 11.635 22.375 11.635
684 1 2 0.0 11.635 25.955 8.055
685 1 2 0.0 13.425 24.165 11.635
686 1 2 0.0 13.425 27.745 8.055
687 1 2 0.0 9.845 27.745 11.635
688 1 2 0.0 9.845 25.955 13.425
689 1 2 0.0 9.845 22.375 9.845
690 1 2 0.0 13.425 25.955 9.845
691 1 2 0.0 11.635 27.745 9.845
692 1 2 0.0 11.635 24.165 13.425
693 1 2 0.0 8.055 27.745 13.425
694 1 2 0.0 13.425 22.375 13.425
695 1 2 0.0 9.845 24.165 8.055
696 1 2 0.0 8.055 24.165 9.845
697 1 1 0.0 14.32 21.48 7.16
698 1 1 0.0 14.32 25.06 10.74
699 1 1 0.0 17.9 21.48 10.74
700 1 1 0.0 17.9 25.06 7.16
701 1 1 0.0 19.69 23.27 12.53
702 1 1 0.0 16.11 23.27 8.95
703 1 1 0.0 16.11 26.85 12.53
704 1 1 0.0 19.69 26.85 8.95
705 1 2 0.0 15.215 22.375 8.055
706 1 2 0.0 15.215 25.955 11.635
707 1 2 0.0 18.795 22.375 11.635
708 1 2 0.0 18.795 25.955 8.055
709 1 2 0.0 20.585 24.165 11.635
710 1 2 0.0 20.585 27.745 8.055
711 1 2 0.0 17.005 27.745 11.635
712 1 2 0.0 17.005 25.955 13.425
713 1 2 0.0 17.005 22.375 9.845
714 1 2 0.0 20.585 25.955 9.845
715 1 2 0.0 18.795 27.745 9.845
716 1 2 0.0 18.795 24.165 13.425
717 1 2 0.0 15.215 27.745 13.425
718 1 2 0.0 20.585 22.375 13.425
719 1 2 0.0 17.005 24.165 8.055
720 1 2 0.0 15.215 24.165 9.845
721 1 1 0.0 0.0 28.64 7.16
722 1 1 0.0 0.0 32.22 10.74
723 1 1 0.0 3.58 28.64 10.74
724 1 1 0.0 3.58 32.22 7.16
725 1 1 0.0 5.37 30.43 12.53
726 1 1 0.0 1.79 30.43 8.95
727 1 1 0.0 1.79 34.01 12.53
728 1 1 0.0 5.37 34.01 8.95
729 1 2 0.0 0.895 29.535 8.055
730 1 2 0.0 0.895 33.115 11.635
731 1 2 0.0 4.475 29.535 11.635
732 1 2 0.0 4.475 33.115 8.055
733 1 2 0.0 6.265 31.325 11.635
734 1 2 0.0 6.265 34.905 8.055
735 1 2 0.0 2.685 34.905 11.635
736 1 2 0.0 2.685 33.115 13.425
737 1 2 0.0 2.685 29.535 9.845
738 1 2 0.0 6.265 33.115 9.845
739 1 2 0.0 4.475 34.905 9.845
740 1 2 0.0 4.475 31.325 13.425
741 1 2 0.0 0.895 34.905 13.425
742 1 2 0.0 6.265 29.535 13.425
743 1 2 0.0 2.685 31.325 8.055
744 1 2 0.0 0.895 31.325 9.845
745 1 1 0.0 7.16 28.64 7.16
746 1 1 0.0 7.16 32.22 10.74
747 1 1 0.0 10.74 28.64 10.74
748 1 1 0.0 10.74 32.22 7.16
749 1 1 0.0 12.53 30.43 12.53
750 1 1 0.0 8.95 30.43 8.95
751 1 1 0.0 8.95 34.01 12.53
752 1 1 0.0 12.53 34.01 8.95
753 1 2 0.0 8.055 29.535 8.055
754 1 2 0.0 8.055 33.115 11.635
755 1 2 0.0 11.635 29.535 11.635
756 1 2 0.0 11.635 33.115 8.055
757 1 2 0.0 13.425 31.325 11.635
758 1 2 0.0 13.425 34.905 8.055
759 1 2 0.0 9.845 34.905 11.635
760 1 2 0.0 9.845 33.115 13.425
761 1 2 0.0 9.845 29.535 9.845
762 1 2 0.0 13.425 33.115 9.845
763 1 2 0.0 11.635 34.905 9.845
764 1 2 0.0 11.635 31.325 13.425
765 1 2 0.0 8.055 34.905 13.425
766 1 2 0.0 13.425 29.535 13.425
767 1 2 0.0 9.845 31.325 8.055
768 1 2 0.0 8.055 31.325 9.845
769 1 1 0.0 14.32 28.64 7.16
770 1 1 0.0 14.32 32.22 10.74
771 1 1 0.0 17.9 28.64 10.74
772 1 1 0.0 17.9 32.22 7.16
773 1 1 0.0 19.69 30.43 12.53
774 1 1 0.0 16.11 30.43 8.95
775 1 1 0.0 16.11 34.01 12.53
776 1 1 0.0 19.69 34.01 8.95
777 1 2 0.0 15.215 29.535 8.055
778 1 2 0.0 15.215 33.115 11.635
779 1 2 0.0 18.795 29.535 11.635
780 1 2 0.0 18.795 33.115 8.055
781 1 2 0.0 20.585 31.325 11.635
782 1 2 0.0 20.585 34.905 8.055
783 1 2 0.0 17.005 34.905 11.635
784 1 2 0.0 17.005 33.115 13.425
785 1 2 0.0 17.005 29.535 9.845
786 1 2 0.0 20.585 33.115 9.845
787 1 2 0.0 18.795 34.905 9.845
788 1 2 0.0 18.795 31.325 13.425
789 1 2 0.0 15.215 34.905 13.425
790 1 2 0.0 20.585 29.535 13.425
791 1 2 0.0 17.005 31.325 8.055
792 1 2 0.0 15.215 31.325 9.845
793 1 1 0.0 0.0 35.8 7.16
794 1 1 0.0 0.0 39.38 10.74
795 1 1 0.0 3.58 35.8 10.74
796 1 1 0.0 3.58 39.38 7.16
797 1 1 0.0 5.37 37.59 12.53
798 1 1 0.0 1.79 37.59 8.95
799 1 1 0.0 1.79 41.17 12.53
800 1 1 0.0 5.37 41.17 8.95
801 1 2 0.0 0.895 36.695 8.055
802 1 2 0.0 0.895 40.275 11.635
803 1 2 0.0 4.475 36.695 11.635
804 1 2 0.0 4.475 40.275 8.055
805 1 2 0.0 6.265 38.485 11.635
806 1 2 0.0 6.265 42.065 8.055
807 1 2 0.0 2.685 42.065 11.635
808 1 2 0.0 2.685 40.275 13.425
809 1 2 0.0 2.685 36.695 9.845
810 1 2 0.0 6.265 40.275 9.845
811 1 2 0.0 4.475 42.065 9.845
812 1 2 0.0 4.475 38.485 13.425
813 1 2 0.0 0.895 42.065 13.425
814 1 2 0.0 6.265 36.695 13.425
815 1 2 0.0 2.685 38.485 8.055
816 1 2 0.0 0.895 38.485 9.845
817 1 1 0.0 7.16 35.8 7.16
818 1 1 0.0 7.16 39.38 10.74
819 1 1 0.0 10.74 35.8 10.74
820 1 1 0.0 10.74 39.38 7.16
821 1 1 0.0 12.53 37.59 12.53
822 1 1 0.0 8.95 37.59 8.95
823 1 1 0.0 8.95 41.17 12.53
824 1 1 0.0 12.53 41.17 8.95
825 1 2 0.0 8.055 36.695 8.055
826 1 2 0.0 8.055 40.275 11.635
827 1 2 0.0 11.635 36.695 11.635
828 1 2 0.0 11.635 40.275 8.055
829 1 2 0.0 13.425 38.485 11.635
830 1 2 0.0 13.425 42.065 8.055
831 1 2 0.0 9.845 42.065 11.635
832 1 2 0.0 9.845 40.275 13.425
833 1 2 0.0 9.845 36.695 9.845
834 1 2 0.0 13.425 40.275 9.845
835 1 2 0.0 11.635 42.065 9.845
836 1 2 0.0 11.635 38.485 13.425
837 1 2 0.0 8.055 42.065 13.425
838 1 2 0.0 13.425 36.695 13.425
839 1 2 0.0 9.845 38.485 8.055
840 1 2 0.0 8.055 38.485 9.845
841 1 1 0.0 14.32 35.8 7.16
842 1 1 0.0 14.32 39.38 10.74
843 1 1 0.0 17.9 35.8 10.74
844 1 1 0.0 17.9 39.38 7.16
845 1 1 0.0 19.69 37.59 12.53
846 1 1 0.0 16.11 37.59 8.95
847 1 1 0.0 16.11 41.17 12.53
848 1 1 0.0 19.69 41.17 8.95
849 1 2 0.0 15.215 36.695 8.055
850 1 2 0.0 15.215 40.275 11.635
851 1 2 0.0 18.795 36.695 11.635
852 1 2 0.0 18.795 40.275 8.055
853 1 2 0.0 20.585 38.485 11.635
854 1 2 0.0 20.585 42.065 8.055
855 1 2 0.0 17.005 42.065 11.635
856 1 2 0.0 17.005 40.275 13.425
857 1 2 0.0 17.005 36.695 9.845
858 1 2 0.0 20.585 40.275 9.845
859 1 2 0.0 18.795 42.065 9.845
860 1 2 0.0 18.795 38.485 13.425
861 1 2 0.0 15.215 42.065 13.425
862 1 2 0.0 20.585 36.695 13.425
863 1 2 0.0 17.005 38.485 8.055
864 1 2 0.0 15.215 38.485 9.845
