ITEM: TIMESTEP
0
ITEM: BOX BOUNDS pp pp pp
0.0000000000000000e+00 1.6795961913825074e+01
0.0000000000000000e+00 1.6795961913825074e+01
0.0000000000000000e+00 1.6795961913825074e+01
ITEM: GRID SIZE nx ny nz
5 5 5
ITEM: GRID CELLS c_ave:grid:data[1] c_ave:grid:data[2] c_ave:grid:data[3] f_ave:grid:count f_ave:grid:data[1] f_ave:grid:data[2] f_ave:grid:data[3]
1 1 1 0 0 0 0
2 2 1 0 0 0 0
3 3 1 0 0 0 0
4 4 1 0 0 0 0
5 5 1 0 0 0 0
6 1 2 0 0 0 0
7 2 2 0 0 0 0
8 3 2 0 0 0 0
9 4 2 0 0 0 0
10 5 2 0 0 0 0
11 1 3 0 0 0 0
12 2 3 0 0 0 0
13 3 3 0 0 0 0
14 4 3 0 0 0 0
15 5 3 0 0 0 0
16 1 4 0 0 0 0
17 2 4 0 0 0 0
18 3 4 0 0 0 0
19 4 4 0 0 0 0
20 5 4 0 0 0 0
21 1 5 0 0 0 0
22 2 5 0 0 0 0
23 3 5 0 0 0 0
24 4 5 0 0 0 0
25 5 5 0 0 0 0
26 1 1 0 0 0 0
27 2 1 0 0 0 0
28 3 1 0 0 0 0
29 4 1 0 0 0 0
30 5 1 0 0 0 0
31 1 2 0 0 0 0
32 2 2 0 0 0 0
33 3 2 0 0 0 0
34 4 2 0 0 0 0
35 5 2 0 0 0 0
36 1 3 0 0 0 0
37 2 3 0 0 0 0
38 3 3 0 0 0 0
39 4 3 0 0 0 0
40 5 3 0 0 0 0
41 1 4 0 0 0 0
42 2 4 0 0 0 0
43 3 4 0 0 0 0
44 4 4 0 0 0 0
45 5 4 0 0 0 0
46 1 5 0 0 0 0
47 2 5 0 0 0 0
48 3 5 0 0 0 0
49 4 5 0 0 0 0
50 5 5 0 0 0 0
51 1 1 0 0 0 0
52 2 1 0 0 0 0
53 3 1 0 0 0 0
54 4 1 0 0 0 0
55 5 1 0 0 0 0
56 1 2 0 0 0 0
57 2 2 0 0 0 0
58 3 2 0 0 0 0
59 4 2 0 0 0 0
60 5 2 0 0 0 0
61 1 3 0 0 0 0
62 2 3 0 0 0 0
63 3 3 0 0 0 0
64 4 3 0 0 0 0
65 5 3 0 0 0 0
66 1 4 0 0 0 0
67 2 4 0 0 0 0
68 3 4 0 0 0 0
69 4 4 0 0 0 0
70 5 4 0 0 0 0
71 1 5 0 0 0 0
72 2 5 0 0 0 0
73 3 5 0 0 0 0
74 4 5 0 0 0 0
75 5 5 0 0 0 0
76 1 1 0 0 0 0
77 2 1 0 0 0 0
78 3 1 0 0 0 0
79 4 1 0 0 0 0
80 5 1 0 0 0 0
81 1 2 0 0 0 0
82 2 2 0 0 0 0
83 3 2 0 0 0 0
84 4 2 0 0 0 0
85 5 2 0 0 0 0
86 1 3 0 0 0 0
87 2 3 0 0 0 0
88 3 3 0 0 0 0
89 4 3 0 0 0 0
90 5 3 0 0 0 0
91 1 4 0 0 0 0
92 2 4 0 0 0 0
93 3 4 0 0 0 0
94 4 4 0 0 0 0
95 5 4 0 0 0 0
96 1 5 0 0 0 0
97 2 5 0 0 0 0
98 3 5 0 0 0 0
99 4 5 0 0 0 0
100 5 5 0 0 0 0
101 1 1 0 0 0 0
102 2 1 0 0 0 0
103 3 1 0 0 0 0
104 4 1 0 0 0 0
105 5 1 0 0 0 0
106 1 2 0 0 0 0
107 2 2 0 0 0 0
108 3 2 0 0 0 0
109 4 2 0 0 0 0
110 5 2 0 0 0 0
111 1 3 0 0 0 0
112 2 3 0 0 0 0
113 3 3 0 0 0 0
114 4 3 0 0 0 0
115 5 3 0 0 0 0
116 1 4 0 0 0 0
117 2 4 0 0 0 0
118 3 4 0 0 0 0
119 4 4 0 0 0 0
120 5 4 0 0 0 0
121 1 5 0 0 0 0
122 2 5 0 0 0 0
123 3 5 0 0 0 0
124 4 5 0 0 0 0
125 5 5 0 0 0 0
ITEM: TIMESTEP
100
ITEM: BOX BOUNDS pp pp pp
0.0000000000000000e+00 1.6795961913825074e+01
0.0000000000000000e+00 1.6795961913825074e+01
0.0000000000000000e+00 1.6795961913825074e+01
ITEM: GRID SIZE nx ny nz
5 5 5
ITEM: GRID CELLS c_ave:grid:data[1] c_ave:grid:data[2] c_ave:grid:data[3] f_ave:grid:count f_ave:grid:data[1] f_ave:grid:data[2] f_ave:grid:data[3]
1 1 1 33.1 0.108691 -0.0171875 0.0677281
2 2 1 34 -0.0357809 -0.0442365 -0.100985
3 3 1 33.6 -0.121429 0.00456135 -0.00228794
4 4 1 35.3 -0.143061 -0.186571 -0.00450376
5 5 1 29.4 0.166201 -0.232965 0.0902037
6 1 2 32.9 0.0622565 -0.0719122 0.0139164
7 2 2 32.1 -0.0526729 0.0586905 -0.25113
8 3 2 34.1 -0.0341948 0.003606 0.242346
9 4 2 31.6 0.0047053 -0.232837 0.0343551
10 5 2 33 -0.0285063 -0.206982 0.0421488
11 1 3 30.7 -0.00282987 -0.00287929 -0.0971777
12 2 3 33.2 0.0431959 0.0796226 0.0537356
13 3 3 32.6 -0.0650579 0.0710818 0.35274
14 4 3 30.9 -0.0434053 -0.126893 0.10644
15 5 3 31.9 -0.0495947 -0.170531 -0.0688135
16 1 4 35.1 -0.0670113 0.139334 0.0733546
17 2 4 33.5 0.06208 0.203176 -0.140851
18 3 4 28.6 0.0740799 0.199298 -0.0403037
19 4 4 33.6 -0.0202453 0.0960687 -0.0761879
20 5 4 32.6 -0.00944586 -0.272442 0.176709
21 1 5 31.9 0.143982 -0.0311387 0.103234
22 2 5 30.3 0.0236608 0.0940204 -0.00736159
23 3 5 30.3 -0.074329 0.266891 0.0483426
24 4 5 32.6 -0.0536011 -0.0680379 0.0726472
25 5 5 33.6 0.0224558 -0.126625 -0.0184612
26 1 1 33.5 -0.0256546 0.137951 -0.0988141
27 2 1 32.3 0.0313132 0.0623664 -0.0651339
28 3 1 29.6 0.0786141 -0.132339 0.0262743
29 4 1 31.8 -0.149768 -0.202909 -0.0752441
30 5 1 29.2 0.0111452 0.0580127 -0.106435
31 1 2 29.3 0.212355 0.137166 -0.211166
32 2 2 34.6 0.153423 0.274899 -0.0878947
33 3 2 30.9 -0.0619836 0.173439 0.11504
34 4 2 30.3 0.0201972 -0.104613 -0.0194446
35 5 2 30.2 0.222136 -0.129637 -0.136835
36 1 3 34.2 -0.0294945 0.0359676 -0.0538247
37 2 3 35.5 -0.068135 0.213559 -0.00169402
38 3 3 28.5 -0.0326542 0.175437 0.394888
39 4 3 28.5 0.168966 0.128117 -0.0154786
40 5 3 30.4 -0.0151635 -0.0943697 -0.064531
41 1 4 34.5 -0.0145804 0.0326037 -0.0777277
42 2 4 30.6 -0.0437386 -0.131626 0.026481
43 3 4 31.8 0.0301213 0.0799365 0.0898376
44 4 4 30.5 -0.00157529 0.0218421 -0.087763
45 5 4 35.2 0.217113 0.019218 0.0296949
46 1 5 32 0.0412114 0.115126 0.188849
47 2 5 31.1 -0.0217857 -0.0739462 0.215932
48 3 5 32.2 0.0542345 0.169249 -0.0174396
49 4 5 35.7 0.0832179 -0.130818 0.0347281
50 5 5 32.8 -0.0738432 0.0365528 -0.0613259
51 1 1 29.6 -0.172805 0.159471 -0.169833
52 2 1 34 -0.135791 0.204182 -0.315566
53 3 1 33.7 0.103327 0.19014 -0.17754
54 4 1 32.5 0.0591223 0.0355121 -0.127314
55 5 1 33.9 -0.0526287 0.202298 -0.0787129
56 1 2 30.8 -0.0287052 0.172033 0.115935
57 2 2 32.2 0.0876111 -0.00291377 0.0562111
58 3 2 29.6 -0.0446057 0.0642844 0.000576313
59 4 2 34.2 0.163002 0.0669976 -0.102977
60 5 2 30.8 0.0344195 0.107108 0.126909
61 1 3 33.3 -0.190976 0.101384 0.0630543
62 2 3 32.9 -0.0408533 -0.135345 -0.100125
63 3 3 30.9 0.0350324 -0.133041 0.0470265
64 4 3 32 0.14771 0.000855612 0.120437
65 5 3 32.3 -0.0870447 -0.175013 -0.0867998
66 1 4 33.6 -0.053613 0.0231817 0.0304576
67 2 4 29.9 0.0580596 -0.180657 -0.111991
68 3 4 30.6 -0.00967545 0.139835 0.106292
69 4 4 34.8 0.0584531 0.0578542 0.148778
70 5 4 34.1 0.00377786 0.0146308 -0.17158
71 1 5 36.2 -0.0940749 -0.0305539 0.0402223
72 2 5 29.7 0.0438951 0.116251 0.111313
73 3 5 30 0.0793372 0.15825 0.145883
74 4 5 31.8 0.0591399 -0.0487664 0.0167345
75 5 5 32 0.143902 -0.0571406 -0.0274796
76 1 1 32.3 -0.213912 0.0690567 0.00215757
77 2 1 32.3 0.0997408 -0.0479701 -0.0495374
78 3 1 29.8 0.00748446 -0.0650416 0.0182649
79 4 1 32.3 0.0314126 0.104085 -0.0969798
80 5 1 36.2 0.107003 -0.0431176 0.0226372
81 1 2 29 -0.0281977 -0.0211999 0.101578
82 2 2 34 -0.0311435 -0.180597 -0.0566022
83 3 2 32 0.0229237 -0.15345 0.109444
84 4 2 32.8 -0.0336067 -0.155233 0.103034
85 5 2 33.1 -0.0218305 0.0658338 0.189418
86 1 3 32.9 -0.107675 0.219992 0.0840276
87 2 3 29.1 0.0122204 -0.159715 -0.0731918
88 3 3 32.2 0.0510356 -0.265626 0.141397
89 4 3 29.6 -0.123303 -0.211688 0.0449803
90 5 3 35.5 -0.183486 0.0919881 -0.203549
91 1 4 33.2 -0.0731406 -0.127364 -0.127654
92 2 4 30.3 -0.167788 -0.226574 -0.0168992
93 3 4 31.8 0.196822 0.0471469 0.184573
94 4 4 32.5 0.0419478 -0.00671237 0.12829
95 5 4 30.1 -0.106671 -0.0240268 -0.242259
96 1 5 28.6 0.0281802 0.090303 -0.107119
97 2 5 34 -0.186155 0.0478281 -0.00551042
98 3 5 31.1 0.0658053 0.166311 0.0568388
99 4 5 33 0.110948 0.223983 0.00489088
100 5 5 29.3 -0.111993 -0.0688056 -0.060408
101 1 1 33.7 0.0361369 0.0269713 -0.0625672
102 2 1 33.4 0.212397 0.0290555 -0.0172575
103 3 1 34.3 0.0193713 0.0867088 -0.0196283
104 4 1 29.3 -0.0706797 0.203161 0.034948
105 5 1 32.4 -0.10608 -0.0909931 -0.00581878
106 1 2 30.8 0.124845 -0.21011 -0.0692524
107 2 2 31.3 0.0163167 0.0893778 0.0463708
108 3 2 31.2 -0.129488 0.00750085 0.151393
109 4 2 32.7 -0.108787 -0.191547 0.0682031
110 5 2 32.8 0.097323 0.0136925 -0.0885813
111 1 3 30.7 -0.0834713 0.00136182 0.121902
112 2 3 30.8 -0.00735895 -0.193103 0.115566
113 3 3 33 -0.0938779 -0.0528934 0.0642507
114 4 3 33.8 -0.164313 -0.193893 -0.0447375
115 5 3 29.6 -0.122792 -0.0407882 -0.0691276
116 1 4 27.2 0.0216932 -0.0524252 -0.0746365
117 2 4 30.4 0.0903154 0.130135 -0.0175397
118 3 4 32.1 0.118321 -0.139219 -0.268917
119 4 4 31.6 0.0367091 -0.168019 -0.00331184
120 5 4 33.6 0.2012 -0.0952979 0.0061116
121 1 5 32.9 -0.0963694 0.0740234 -0.118751
122 2 5 32 0.0273963 0.0975166 -0.0966995
123 3 5 31.2 -0.0790592 -0.0820087 -0.204028
124 4 5 32 -0.0233046 0.085567 0.0749055
125 5 5 29.1 -0.131418 -0.105697 0.122042
ITEM: TIMESTEP
200
ITEM: BOX BOUNDS pp pp pp
0.0000000000000000e+00 1.6795961913825074e+01
0.0000000000000000e+00 1.6795961913825074e+01
0.0000000000000000e+00 1.6795961913825074e+01
ITEM: GRID SIZE nx ny nz
5 5 5
ITEM: GRID CELLS c_ave:grid:data[1] c_ave:grid:data[2] c_ave:grid:data[3] f_ave:grid:count f_ave:grid:data[1] f_ave:grid:data[2] f_ave:grid:data[3]
1 1 1 30.1 -0.0167705 0.0195294 0.00906557
2 2 1 35.5 -0.0860601 -0.0423834 -0.0977787
3 3 1 33.1 0.00349186 -0.0845069 0.0387194
4 4 1 34.1 -0.0225093 0.135535 0.0397494
5 5 1 33.4 -0.134676 -0.0330433 -0.0173096
6 1 2 36 0.11461 -0.0661233 -0.0778747
7 2 2 33.5 0.154041 0.0972489 0.163556
8 3 2 32.9 0.0518226 -0.028232 0.0869898
9 4 2 31.8 -0.0948914 -0.035861 -0.0279349
10 5 2 28.3 0.0325296 -0.112531 -0.0558347
11 1 3 32.4 -0.136053 -0.0595076 0.00811851
12 2 3 31.9 0.0393072 0.172637 0.0393563
13 3 3 33.5 -0.0421583 0.120826 -0.0454929
14 4 3 30.5 0.0600488 -0.137908 0.0208295
15 5 3 34.2 0.0453729 -0.116295 -0.0930296
16 1 4 31.7 0.147837 0.163847 -0.057853
17 2 4 29.5 0.076292 0.115794 -0.22576
18 3 4 30.3 0.0420731 0.166957 -0.0838068
19 4 4 31 0.0362901 -0.158913 -0.127841
20 5 4 28.6 -0.104225 -0.0436585 -0.197812
21 1 5 32.5 -0.0690589 0.104894 0.0781612
22 2 5 28.5 0.068583 0.0322069 0.00866041
23 3 5 31.4 0.0237727 0.0331989 -0.0512703
24 4 5 32.7 0.0756933 -0.143306 0.0449172
25 5 5 32.4 0.0975796 -0.0161378 0.00686014
26 1 1 32.2 0.149466 -0.106167 0.0427377
27 2 1 32.7 -0.0312308 0.173631 -0.0827313
28 3 1 33 0.0183129 0.0659949 -0.0392253
29 4 1 32.4 0.172989 0.0164176 -0.0984958
30 5 1 33.8 -0.069514 -0.00119696 0.0535496
31 1 2 32.5 0.030384 0.0150121 0.0875652
32 2 2 32.2 -0.26474 0.144581 0.0207015
33 3 2 29.9 -0.0312219 -0.0120339 0.00352298
34 4 2 31.4 0.0140278 0.0958379 0.0488699
35 5 2 31.1 -0.0604329 -0.175214 -0.0462387
36 1 3 35 -0.0197821 -0.119018 -0.0920095
37 2 3 30.4 -0.0904325 0.178769 0.0681798
38 3 3 29.2 0.106925 0.0942281 0.0291185
39 4 3 28.5 0.237937 -0.0855388 0.0407745
40 5 3 32.8 -0.0339833 -0.190869 0.00468206
41 1 4 33.5 -0.0301545 -0.0637526 0.0719642
42 2 4 32.5 -0.0571394 0.0782092 0.0844722
43 3 4 31 -0.054802 0.121615 0.0967566
44 4 4 31.3 -0.19002 0.0628039 0.0537928
45 5 4 34.8 0.00839739 -0.066542 0.0452955
46 1 5 29.6 0.117502 0.0402145 -0.0162341
47 2 5 32.4 0.0316942 0.0850487 0.0403008
48 3 5 28.2 -0.0635613 0.0102714 0.0498984
49 4 5 34.4 0.219556 0.00487601 0.00051971
50 5 5 33 0.114406 0.0411082 -0.0212954
51 1 1 29.9 0.0970072 0.148606 0.106757
52 2 1 32.5 -0.0897291 0.211897 -0.0771408
53 3 1 31.6 0.0211351 0.133158 -0.0925131
54 4 1 31.4 0.179129 0.0846899 -0.0893079
55 5 1 30.8 0.100548 -0.0781924 0.0103912
56 1 2 33.4 -0.0753072 -0.106118 0.0717685
57 2 2 32.5 0.0093451 0.133126 0.0171943
58 3 2 31.1 0.00671864 -0.00866565 0.0301512
59 4 2 34.7 0.014887 -0.0553136 0.0738828
60 5 2 32.4 0.18742 -0.0484528 -0.157449
61 1 3 33.2 -0.0287858 0.0816097 -0.0738167
62 2 3 31 0.0171084 0.151737 -0.0052986
63 3 3 31.6 0.143899 0.123441 0.0454909
64 4 3 31.4 0.0388349 -0.00307076 -0.0199439
65 5 3 30.9 -0.0633548 -0.0434713 0.121213
66 1 4 32.6 0.0223542 -0.0284349 -0.019197
67 2 4 32.5 -0.00930615 -0.0689259 0.132358
68 3 4 34.8 0.212392 -0.0266371 0.0319238
69 4 4 30.2 -0.0736797 0.124429 -0.0153205
70 5 4 34.8 -0.0350909 0.0524307 -0.0996411
71 1 5 32.9 -0.00752668 0.176837 -0.0610322
72 2 5 32.7 -0.115872 -0.134369 0.168338
73 3 5 33 -0.00909163 -0.0580485 0.139673
74 4 5 29.9 0.0716196 -0.140821 0.102748
75 5 5 34.8 -0.0481035 0.0758424 0.0590774
76 1 1 32.8 0.0891027 0.109369 0.0550875
77 2 1 34.1 -0.0511739 0.176353 -0.0746948
78 3 1 32.9 -0.120559 0.099108 -0.155978
79 4 1 31 -0.0653173 -0.00727776 0.105962
80 5 1 35.6 -0.00923898 0.0414175 -0.0930917
81 1 2 31 0.113825 0.128913 0.0186016
82 2 2 33.5 0.0358275 -0.159966 -0.0443271
83 3 2 33.4 0.0109676 -0.0372992 -0.0840843
84 4 2 30.7 -0.153811 -0.0873753 0.00105502
85 5 2 32.1 -0.0444353 0.114193 0.0641865
86 1 3 31.7 -0.134757 0.0695615 0.0181047
87 2 3 29.5 0.0939724 -0.0694934 0.0978202
88 3 3 34.1 -0.211686 -0.112856 0.000681003
89 4 3 33.3 -0.0869178 -0.154897 -0.0306191
90 5 3 36.2 -0.0195835 -0.00015944 0.113574
91 1 4 35.6 -0.054714 0.0369566 0.0630615
92 2 4 30.7 -0.0537292 -0.0771049 -0.0723109
93 3 4 26.3 -0.0505177 -0.181783 0.00200052
94 4 4 30.9 0.139008 0.0144956 -0.0378991
95 5 4 31.3 -0.0550051 -0.066347 0.0977645
96 1 5 30.7 0.0323691 0.106218 -0.0155461
97 2 5 29.7 -0.216194 -0.18175 -0.290335
98 3 5 31.6 -0.0712667 0.117783 -0.0346236
99 4 5 29.8 -0.0727952 0.138123 0.0898252
100 5 5 29.1 -0.13108 0.0262324 -0.0710626
101 1 1 29.6 -0.0303332 -0.127031 -0.00323299
102 2 1 32.1 0.0415995 0.0747611 -0.100121
103 3 1 35.2 -0.0946286 -0.04097 -0.0202903
104 4 1 32.3 -0.0632024 -0.0904981 0.1623
105 5 1 32.5 0.00340603 -0.0463161 0.0616829
106 1 2 32.8 0.0534639 -0.00213669 0.0502898
107 2 2 32.9 -0.0142806 -0.121872 0.058359
108 3 2 36.3 0.122571 0.0341945 0.0869266
109 4 2 29.9 0.00945642 -0.218991 0.0873234
110 5 2 33.3 -0.0393372 -0.119398 -0.00338854
111 1 3 29.3 -0.0133141 -0.0576939 -0.140087
112 2 3 32.8 -0.0366278 -0.0630672 0.0216676
113 3 3 30.6 -0.104905 0.0138958 -0.121965
114 4 3 32.1 0.0602664 -0.108713 0.0326801
115 5 3 30 -0.00190879 -0.120801 0.0196233
116 1 4 31 -0.0215483 0.111864 0.172863
117 2 4 28.7 -0.0755115 -0.0434439 -0.109064
118 3 4 32.6 -0.0580365 -0.00774281 -0.0789034
119 4 4 33.8 0.0199893 -0.0590031 -0.0507169
120 5 4 32.2 0.0337986 -0.00890466 0.106468
121 1 5 32.3 -0.123072 -0.147364 -0.214539
122 2 5 31.7 -0.118019 -0.126896 -0.0163868
123 3 5 34 0.0489085 0.028454 -0.173373
124 4 5 29.8 0.143216 0.0487317 0.107516
125 5 5 30.4 0.201311 -0.0570041 0.0799942
