LAMMPS data file via write_data, version 8 Feb 2023, timestep = 0

3 atoms
4 atom types
1 bonds
1 bond types

0 8 xlo xhi
0 8 ylo yhi
0 8 zlo zhi

Atom Type Labels

1 C1
2 N2'
3 C1'-C2"-C3#
4 [#6X4:1]

Bond Type Labels

1 [#6X4:1]-[#6X4:2]

Masses

1 1
2 2
3 3
4 4

Atoms # full

1 1 [#6X4:1] -0.1 2.2 5.0 2.8
2 1 [#6X4:1] 0.1 5.5 5.8 2.3
3 1 3 0.1 5.5 0.8 2.3

Bonds

1 [#6X4:1]-[#6X4:2] 1 2
