ITEM: TIMESTEP
0
ITEM: NUMBER OF ATOMS
16
ITEM: BOX BOUNDS pp pp pp
0.0000000000000000e+00 2.0000000000000000e+00
0.0000000000000000e+00 2.0000000000000000e+00
0.0000000000000000e+00 2.0000000000000000e+00
ITEM: ATOMS ParticleIdentifier ParticleType Position.X Position.Y Position.Z Velocity.X Velocity.Y Velocity.Z
1 1 0 0 0 0 0 0
2 1 0.5 0.5 0.5 0 0 0
3 1 1 0 0 0 0 0
4 1 1.5 0.5 0.5 0 0 0
5 1 0 1 0 0 0 0
6 1 0.5 1.5 0.5 0 0 0
7 1 1 1 0 0 0 0
8 1 1.5 1.5 0.5 0 0 0
9 1 0 0 1 0 0 0
10 1 0.5 0.5 1.5 0 0 0
11 1 1 0 1 0 0 0
12 1 1.5 0.5 1.5 0 0 0
13 1 0 1 1 0 0 0
14 1 0.5 1.5 1.5 0 0 0
15 1 1 1 1 0 0 0
16 1 1.5 1.5 1.5 0 0 0
